# vtk DataFile Version 3.0
Mesh_1
ASCII
DATASET UNSTRUCTURED_GRID
POINTS 5754 float
-50 -50 0
-50 50 0
50 -50 0
50 50 0
-50 -48.75 0
-50 -47.5 0
-50 -46.25 0
-50 -45 0
-50 -43.75 0
-50 -42.5 0
-50 -41.25 0
-50 -40 0
-50 -38.75 0
-50 -37.5 0
-50 -36.25 0
-50 -35 0
-50 -33.75 0
-50 -32.5 0
-50 -31.25 0
-50 -30 0
-50 -28.75 0
-50 -27.5 0
-50 -26.25 0
-50 -25 0
-50 -23.75 0
-50 -22.5 0
-50 -21.25 0
-50 -20 0
-50 -18.75 0
-50 -17.5 0
-50 -16.25 0
-50 -15 0
-50 -13.75 0
-50 -12.5 0
-50 -11.25 0
-50 -10 0
-50 -8.75 0
-50 -7.5 0
-50 -6.25 0
-50 -5 0
-50 -3.75 0
-50 -2.5 0
-50 -1.25 0
-50 0 0
-50 1.25 0
-50 2.5 0
-50 3.75 0
-50 5 0
-50 6.25 0
-50 7.5 0
-50 8.75 0
-50 10 0
-50 11.25 0
-50 12.5 0
-50 13.75 0
-50 15 0
-50 16.25 0
-50 17.5 0
-50 18.75 0
-50 20 0
-50 21.25 0
-50 22.5 0
-50 23.75 0
-50 25 0
-50 26.25 0
-50 27.5 0
-50 28.75 0
-50 30 0
-50 31.25 0
-50 32.5 0
-50 33.75 0
-50 35 0
-50 36.25 0
-50 37.5 0
-50 38.75 0
-50 40 0
-50 41.25 0
-50 42.5 0
-50 43.75 0
-50 45 0
-50 46.25 0
-50 47.5 0
-50 48.75 0
-48.75 -50 0
-47.5 -50 0
-46.25 -50 0
-45 -50 0
-43.75 -50 0
-42.5 -50 0
-41.25 -50 0
-40 -50 0
-38.75 -50 0
-37.5 -50 0
-36.25 -50 0
-35 -50 0
-33.75 -50 0
-32.5 -50 0
-31.25 -50 0
-30 -50 0
-28.75 -50 0
-27.5 -50 0
-26.25 -50 0
-25 -50 0
-23.75 -50 0
-22.5 -50 0
-21.25 -50 0
-20 -50 0
-18.75 -50 0
-17.5 -50 0
-16.25 -50 0
-15 -50 0
-13.75 -50 0
-12.5 -50 0
-11.25 -50 0
-10 -50 0
-8.75 -50 0
-7.5 -50 0
-6.25 -50 0
-5 -50 0
-3.75 -50 0
-2.5 -50 0
-1.25 -50 0
0 -50 0
1.25 -50 0
2.5 -50 0
3.75 -50 0
5 -50 0
6.25 -50 0
7.5 -50 0
8.75 -50 0
10 -50 0
11.25 -50 0
12.5 -50 0
13.75 -50 0
15 -50 0
16.25 -50 0
17.5 -50 0
18.75 -50 0
20 -50 0
21.25 -50 0
22.5 -50 0
23.75 -50 0
25 -50 0
26.25 -50 0
27.5 -50 0
28.75 -50 0
30 -50 0
31.25 -50 0
32.5 -50 0
33.75 -50 0
35 -50 0
36.25 -50 0
37.5 -50 0
38.75 -50 0
40 -50 0
41.25 -50 0
42.5 -50 0
43.75 -50 0
45 -50 0
46.25 -50 0
47.5 -50 0
48.75 -50 0
50 -48.75 0
50 -47.5 0
50 -46.25 0
50 -45 0
50 -43.75 0
50 -42.5 0
50 -41.25 0
50 -40 0
50 -38.75 0
50 -37.5 0
50 -36.25 0
50 -35 0
50 -33.75 0
50 -32.5 0
50 -31.25 0
50 -30 0
50 -28.75 0
50 -27.5 0
50 -26.25 0
50 -25 0
50 -23.75 0
50 -22.5 0
50 -21.25 0
50 -20 0
50 -18.75 0
50 -17.5 0
50 -16.25 0
50 -15 0
50 -13.75 0
50 -12.5 0
50 -11.25 0
50 -10 0
50 -8.75 0
50 -7.5 0
50 -6.25 0
50 -5 0
50 -3.75 0
50 -2.5 0
50 -1.25 0
50 0 0
50 1.25 0
50 2.5 0
50 3.75 0
50 5 0
50 6.25 0
50 7.5 0
50 8.75 0
50 10 0
50 11.25 0
50 12.5 0
50 13.75 0
50 15 0
50 16.25 0
50 17.5 0
50 18.75 0
50 20 0
50 21.25 0
50 22.5 0
50 23.75 0
50 25 0
50 26.25 0
50 27.5 0
50 28.75 0
50 30 0
50 31.25 0
50 32.5 0
50 33.75 0
50 35 0
50 36.25 0
50 37.5 0
50 38.75 0
50 40 0
50 41.25 0
50 42.5 0
50 43.75 0
50 45 0
50 46.25 0
50 47.5 0
50 48.75 0
-48.75 50 0
-47.5 50 0
-46.25 50 0
-45 50 0
-43.75 50 0
-42.5 50 0
-41.25 50 0
-40 50 0
-38.75 50 0
-37.5 50 0
-36.25 50 0
-35 50 0
-33.75 50 0
-32.5 50 0
-31.25 50 0
-30 50 0
-28.75 50 0
-27.5 50 0
-26.25 50 0
-25 50 0
-23.75 50 0
-22.5 50 0
-21.25 50 0
-20 50 0
-18.75 50 0
-17.5 50 0
-16.25 50 0
-15 50 0
-13.75 50 0
-12.5 50 0
-11.25 50 0
-10 50 0
-8.75 50 0
-7.5 50 0
-6.25 50 0
-5 50 0
-3.75 50 0
-2.5 50 0
-1.25 50 0
0 50 0
1.25 50 0
2.5 50 0
3.75 50 0
5 50 0
6.25 50 0
7.5 50 0
8.75 50 0
10 50 0
11.25 50 0
12.5 50 0
13.75 50 0
15 50 0
16.25 50 0
17.5 50 0
18.75 50 0
20 50 0
21.25 50 0
22.5 50 0
23.75 50 0
25 50 0
26.25 50 0
27.5 50 0
28.75 50 0
30 50 0
31.25 50 0
32.5 50 0
33.75 50 0
35 50 0
36.25 50 0
37.5 50 0
38.75 50 0
40 50 0
41.25 50 0
42.5 50 0
43.75 50 0
45 50 0
46.25 50 0
47.5 50 0
48.75 50 0
-48.75 48.75 0
-47.5 48.75 0
-46.25 48.75 0
-45 48.75 0
-43.75 48.75 0
-42.5 48.75 0
-41.25 48.75 0
-40 48.75 0
-38.75 48.75 0
-37.5 48.75 0
-36.25 48.75 0
-35 48.75 0
-33.75 48.75 0
-32.5 48.75 0
-31.25 48.75 0
-30 48.75 0
-28.75 48.75 0
-27.5 48.75 0
-26.25 48.75 0
-25 48.75 0
-23.75 48.75 0
-22.5 48.75 0
-21.25 48.75 0
-20 48.75 0
-18.75 48.75 0
-17.5 48.75 0
-16.25 48.75 0
-15 48.75 0
-13.75 48.75 0
-12.5 48.75 0
-11.25 48.75 0
-10 48.75 0
-8.75 48.75 0
-7.5 48.75 0
-6.25 48.75 0
-5 48.75 0
-3.75 48.75 0
-2.5 48.75 0
-1.25 48.75 0
0 48.75 0
1.25 48.75 0
2.5 48.75 0
3.75 48.75 0
5 48.75 0
6.25 48.75 0
7.5 48.75 0
8.75 48.75 0
10 48.75 0
11.25 48.75 0
12.5 48.75 0
13.75 48.75 0
15 48.75 0
16.25 48.75 0
17.5 48.75 0
18.75 48.75 0
20 48.75 0
21.25 48.75 0
22.5 48.75 0
23.75 48.75 0
25 48.75 0
26.25 48.75 0
27.5 48.75 0
28.75 48.75 0
30 48.75 0
31.25 48.75 0
32.5 48.75 0
33.75 48.75 0
35 48.75 0
36.25 48.75 0
37.5 48.75 0
38.75 48.75 0
40 48.75 0
41.25 48.75 0
42.5 48.75 0
43.75 48.75 0
45 48.75 0
46.25 48.75 0
47.5 48.75 0
48.75 48.75 0
-48.75 47.5 0
-47.5 47.5 0
-46.25 47.5 0
-45 47.5 0
-43.75 47.5 0
-42.5 47.5 0
-41.25 47.5 0
-40 47.5 0
-38.75 47.5 0
-37.5 47.5 0
-36.25 47.5 0
-35 47.5 0
-33.75 47.5 0
-32.5 47.5 0
-31.25 47.5 0
-30 47.5 0
-28.75 47.5 0
-27.5 47.5 0
-26.25 47.5 0
-25 47.5 0
-23.75 47.5 0
-22.5 47.5 0
-21.25 47.5 0
-20 47.5 0
-18.75 47.5 0
-17.5 47.5 0
-16.25 47.5 0
-15 47.5 0
-13.75 47.5 0
-12.5 47.5 0
-11.25 47.5 0
-10 47.5 0
-8.75 47.5 0
-7.5 47.5 0
-6.25 47.5 0
-5 47.5 0
-3.75 47.5 0
-2.5 47.5 0
-1.25 47.5 0
0 47.5 0
1.25 47.5 0
2.5 47.5 0
3.75 47.5 0
5 47.5 0
6.25 47.5 0
7.5 47.5 0
8.75 47.5 0
10 47.5 0
11.25 47.5 0
12.5 47.5 0
13.75 47.5 0
15 47.5 0
16.25 47.5 0
17.5 47.5 0
18.75 47.5 0
20 47.5 0
21.25 47.5 0
22.5 47.5 0
23.75 47.5 0
25 47.5 0
26.25 47.5 0
27.5 47.5 0
28.75 47.5 0
30 47.5 0
31.25 47.5 0
32.5 47.5 0
33.75 47.5 0
35 47.5 0
36.25 47.5 0
37.5 47.5 0
38.75 47.5 0
40 47.5 0
41.25 47.5 0
42.5 47.5 0
43.75 47.5 0
45 47.5 0
46.25 47.5 0
47.5 47.5 0
48.75 47.5 0
-48.75 46.25 0
-47.5 46.25 0
-46.25 46.25 0
-45 46.25 0
-43.75 46.25 0
-42.5 46.25 0
-41.25 46.25 0
-40 46.25 0
-38.75 46.25 0
-37.5 46.25 0
-36.25 46.25 0
-35 46.25 0
-33.75 46.25 0
-32.5 46.25 0
-31.25 46.25 0
-30 46.25 0
-28.75 46.25 0
-27.5 46.25 0
-26.25 46.25 0
-25 46.25 0
-23.75 46.25 0
-22.5 46.25 0
-21.25 46.25 0
-20 46.25 0
-18.75 46.25 0
-17.5 46.25 0
-16.25 46.25 0
-15 46.25 0
-13.75 46.25 0
-12.5 46.25 0
-11.25 46.25 0
-10 46.25 0
-8.75 46.25 0
-7.5 46.25 0
-6.25 46.25 0
-5 46.25 0
-3.75 46.25 0
-2.5 46.25 0
-1.25 46.25 0
0 46.25 0
1.25 46.25 0
2.5 46.25 0
3.75 46.25 0
5 46.25 0
6.25 46.25 0
7.5 46.25 0
8.75 46.25 0
10 46.25 0
11.25 46.25 0
12.5 46.25 0
13.75 46.25 0
15 46.25 0
16.25 46.25 0
17.5 46.25 0
18.75 46.25 0
20 46.25 0
21.25 46.25 0
22.5 46.25 0
23.75 46.25 0
25 46.25 0
26.25 46.25 0
27.5 46.25 0
28.75 46.25 0
30 46.25 0
31.25 46.25 0
32.5 46.25 0
33.75 46.25 0
35 46.25 0
36.25 46.25 0
37.5 46.25 0
38.75 46.25 0
40 46.25 0
41.25 46.25 0
42.5 46.25 0
43.75 46.25 0
45 46.25 0
46.25 46.25 0
47.5 46.25 0
48.75 46.25 0
-48.75 45 0
-47.5 45 0
-46.25 45 0
-45 45 0
-43.75 45 0
-42.5 45 0
-41.25 45 0
-40 45 0
-38.75 45 0
-37.5 45 0
-36.25 45 0
-35 45 0
-33.75 45 0
-32.5 45 0
-31.25 45 0
-30 45 0
-28.75 45 0
-27.5 45 0
-26.25 45 0
-25 45 0
-23.75 45 0
-22.5 45 0
-21.25 45 0
-20 45 0
-18.75 45 0
-17.5 45 0
-16.25 45 0
-15 45 0
-13.75 45 0
-12.5 45 0
-11.25 45 0
-10 45 0
-8.75 45 0
-7.5 45 0
-6.25 45 0
-5 45 0
-3.75 45 0
-2.5 45 0
-1.25 45 0
0 45 0
1.25 45 0
2.5 45 0
3.75 45 0
5 45 0
6.25 45 0
7.5 45 0
8.75 45 0
10 45 0
11.25 45 0
12.5 45 0
13.75 45 0
15 45 0
16.25 45 0
17.5 45 0
18.75 45 0
20 45 0
21.25 45 0
22.5 45 0
23.75 45 0
25 45 0
26.25 45 0
27.5 45 0
28.75 45 0
30 45 0
31.25 45 0
32.5 45 0
33.75 45 0
35 45 0
36.25 45 0
37.5 45 0
38.75 45 0
40 45 0
41.25 45 0
42.5 45 0
43.75 45 0
45 45 0
46.25 45 0
47.5 45 0
48.75 45 0
-48.75 43.75 0
-47.5 43.75 0
-46.25 43.75 0
-45 43.75 0
-43.75 43.75 0
-42.5 43.75 0
-41.25 43.75 0
-40 43.75 0
-38.75 43.75 0
-37.5 43.75 0
-36.25 43.75 0
-35 43.75 0
-33.75 43.75 0
-32.5 43.75 0
-31.25 43.75 0
-30 43.75 0
-28.75 43.75 0
-27.5 43.75 0
-26.25 43.75 0
-25 43.75 0
-23.75 43.75 0
-22.5 43.75 0
-21.25 43.75 0
-20 43.75 0
-18.75 43.75 0
-17.5 43.75 0
-16.25 43.75 0
-15 43.75 0
-13.75 43.75 0
-12.5 43.75 0
-11.25 43.75 0
-10 43.75 0
-8.75 43.75 0
-7.5 43.75 0
-6.25 43.75 0
-5 43.75 0
-3.75 43.75 0
-2.5 43.75 0
-1.25 43.75 0
0 43.75 0
1.25 43.75 0
2.5 43.75 0
3.75 43.75 0
5 43.75 0
6.25 43.75 0
7.5 43.75 0
8.75 43.75 0
10 43.75 0
11.25 43.75 0
12.5 43.75 0
13.75 43.75 0
15 43.75 0
16.25 43.75 0
17.5 43.75 0
18.75 43.75 0
20 43.75 0
21.25 43.75 0
22.5 43.75 0
23.75 43.75 0
25 43.75 0
26.25 43.75 0
27.5 43.75 0
28.75 43.75 0
30 43.75 0
31.25 43.75 0
32.5 43.75 0
33.75 43.75 0
35 43.75 0
36.25 43.75 0
37.5 43.75 0
38.75 43.75 0
40 43.75 0
41.25 43.75 0
42.5 43.75 0
43.75 43.75 0
45 43.75 0
46.25 43.75 0
47.5 43.75 0
48.75 43.75 0
-48.75 42.5 0
-47.5 42.5 0
-46.25 42.5 0
-45 42.5 0
-43.75 42.5 0
-42.5 42.5 0
-41.25 42.5 0
-40 42.5 0
-38.75 42.5 0
-37.5 42.5 0
-36.25 42.5 0
-35 42.5 0
-33.75 42.5 0
-32.5 42.5 0
-31.25 42.5 0
-30 42.5 0
-28.75 42.5 0
-27.5 42.5 0
-26.25 42.5 0
-25 42.5 0
-23.75 42.5 0
-22.5 42.5 0
-21.25 42.5 0
-20 42.5 0
-18.75 42.5 0
-17.5 42.5 0
-16.25 42.5 0
-15 42.5 0
-13.75 42.5 0
-12.5 42.5 0
-11.25 42.5 0
-10 42.5 0
-8.75 42.5 0
-7.5 42.5 0
-6.25 42.5 0
-5 42.5 0
-3.75 42.5 0
-2.5 42.5 0
-1.25 42.5 0
0 42.5 0
1.25 42.5 0
2.5 42.5 0
3.75 42.5 0
5 42.5 0
6.25 42.5 0
7.5 42.5 0
8.75 42.5 0
10 42.5 0
11.25 42.5 0
12.5 42.5 0
13.75 42.5 0
15 42.5 0
16.25 42.5 0
17.5 42.5 0
18.75 42.5 0
20 42.5 0
21.25 42.5 0
22.5 42.5 0
[...]
POINT_DATA 5754
SCALARS Temperature float 1
LOOKUP_TABLE default
100
400
100
400
110.908
122.015
133.497
145.555
158.381
172.143
186.97
202.946
220.095
238.373
257.657
277.735
298.305
318.97
339.257
358.637
376.573
392.568
406.222
417.256
425.508
430.902
433.412
433.03
429.751
423.574
414.514
402.641
388.113
371.213
352.354
332.056
310.893
289.439
268.223
247.701
228.239
210.113
193.511
178.543
165.249
153.614
143.578
135.047
127.904
122.018
117.253
113.477
110.562
108.393
106.873
105.919
105.468
105.479
105.926
106.805
108.13
109.932
112.256
115.162
118.724
123.025
128.156
134.214
141.298
149.506
158.929
169.653
181.747
195.262
210.228
226.647
244.492
263.704
284.189
305.818
328.427
351.822
375.772
100
100
100
100
100
100
100
100
100
100
100
100
100
100
100
100
100
100
100
100
100
100
100
100
100
100
100
100
100
100
100
100
100
100
100
100
100
100
100
100
100
100
100
100
100
100
100
100
100
100
100
100
100
100
100
100
100
100
100
100
100
100
100
100
100
100
100
100
100
100
100
100
100
100
100
100
100
100
100
100.004
100.007
100.012
100.018
100.025
100.035
100.048
100.066
100.089
100.12
100.161
100.214
100.283
100.372
100.486
100.632
100.817
101.049
101.34
101.701
102.146
102.691
103.354
104.154
105.113
106.254
107.601
109.18
111.015
113.133
115.555
118.302
121.39
124.831
128.625
132.766
137.234
141.994
146.991
152.152
157.378
162.549
167.527
172.17
176.355
179.999
183.082
185.634
187.712
189.39
190.739
191.828
192.716
193.458
194.103
194.695
195.28
195.904
196.619
197.485
198.571
199.964
201.77
204.121
207.172
211.107
216.129
222.443
230.224
239.581
250.526
262.992
276.856
291.974
308.193
325.354
343.295
361.844
380.817
400
400
400
400
400
400
400
400
400
400
400
400
400
400
400
400
400
400
400
400
400
400
400
400
400
400
400
400
400
400
400
400
400
400
400
400
400
400
400
400
400
400
400
400
400
400
400
400
400
400
400
400
400
400
400
400
400
400
400
400
400
400
400
400
400
400
400
400
400
400
400
400
400
400
400
400
400
400
400
375.757
375.772
375.798
375.828
375.859
375.889
375.917
375.942
375.965
375.986
376.004
376.02
376.034
376.046
376.057
376.067
376.076
376.085
376.094
376.104
376.115
376.13
376.149
376.173
376.204
376.244
376.295
376.358
376.437
376.533
376.648
376.783
376.939
377.116
377.313
377.527
377.754
377.989
378.226
378.456
378.672
378.867
379.035
379.173
379.28
379.359
379.415
379.454
379.482
379.504
379.523
379.539
379.554
379.568
379.58
379.59
379.598
379.604
379.608
379.61
379.61
379.609
379.608
379.607
379.608
379.613
379.624
379.646
379.681
379.733
379.805
379.898
380.011
380.142
380.282
380.423
380.559
380.683
380.794
351.847
351.895
351.954
352.017
352.079
352.138
352.193
352.243
352.289
352.33
352.366
352.397
352.425
352.449
352.47
352.49
352.507
352.525
352.543
352.563
352.587
352.617
352.655
352.704
352.766
352.847
352.949
353.078
353.236
353.429
353.66
353.93
354.243
354.597
354.99
355.415
355.867
356.333
356.799
357.251
357.673
358.049
358.368
358.622
358.811
358.943
359.03
359.086
359.125
359.154
359.18
359.205
359.229
359.251
359.272
359.29
359.304
359.315
359.322
359.326
359.326
359.325
359.323
359.322
359.326
359.338
359.364
359.411
359.486
359.598
359.752
359.953
360.198
360.478
360.779
361.081
361.366
361.62
361.832
328.506
328.597
328.693
328.79
328.883
328.972
329.053
329.128
329.195
329.254
329.307
329.354
329.394
329.43
329.461
329.49
329.516
329.542
329.57
329.6
329.636
329.681
329.739
329.813
329.908
330.03
330.185
330.379
330.618
330.908
331.255
331.662
332.131
332.661
333.248
333.884
334.556
335.248
335.937
336.6
337.212
337.747
338.187
338.521
338.75
338.89
338.963
338.997
339.013
339.026
339.042
339.062
339.086
339.111
339.135
339.157
339.176
339.19
339.199
339.204
339.205
339.203
339.202
339.203
339.211
339.233
339.277
339.353
339.475
339.657
339.91
340.242
340.65
341.119
341.62
342.118
342.581
342.98
343.296
305.952
306.089
306.224
306.355
306.48
306.596
306.702
306.799
306.886
306.964
307.032
307.092
307.145
307.191
307.232
307.269
307.304
307.338
307.375
307.415
307.464
307.525
307.602
307.702
307.83
307.994
308.202
308.462
308.783
309.171
309.634
310.177
310.803
311.509
312.289
313.133
314.023
314.934
315.838
316.699
317.48
318.146
318.668
319.029
319.235
319.311
319.301
319.254
319.203
319.168
319.152
319.153
319.167
319.187
319.21
319.233
319.252
319.267
319.278
319.283
319.285
319.284
319.284
319.287
319.302
319.335
319.398
319.507
319.682
319.944
320.314
320.81
321.429
322.147
322.913
323.667
324.353
324.928
325.361
284.376
284.557
284.73
284.895
285.049
285.191
285.321
285.438
285.543
285.637
285.719
285.791
285.855
285.911
285.96
286.005
286.048
286.09
286.135
286.186
286.248
286.324
286.422
286.547
286.709
286.916
287.177
287.504
287.905
288.392
288.972
289.651
290.433
291.314
292.287
293.337
294.441
295.568
296.678
297.724
298.654
299.417
299.969
300.287
300.378
300.286
300.093
299.884
299.711
299.593
299.524
299.493
299.487
299.497
299.515
299.534
299.552
299.567
299.577
299.582
299.584
299.584
299.586
299.593
299.614
299.657
299.74
299.881
300.108
300.456
300.962
301.658
302.554
303.614
304.746
305.846
306.824
307.619
308.191
263.938
264.16
264.368
264.563
264.743
264.909
265.059
265.194
265.316
265.423
265.518
265.601
265.674
265.738
265.795
265.848
265.897
265.947
266
266.061
266.135
266.227
266.345
266.497
266.692
266.941
267.256
267.65
268.133
268.718
269.415
270.23
271.167
272.222
273.387
274.642
275.959
277.299
278.61
279.83
280.889
281.715
282.241
282.426
282.274
281.86
281.332
280.856
280.503
280.271
280.136
280.066
280.038
280.034
280.043
280.057
280.072
280.084
280.093
280.098
280.1
280.102
280.105
280.115
280.14
280.192
280.288
280.453
280.724
281.151
281.796
282.727
283.985
285.528
287.184
288.764
290.132
291.206
291.945
244.766
245.023
245.261
245.482
245.685
245.871
246.038
246.189
246.323
246.443
246.547
246.64
246.72
246.792
246.856
246.914
246.97
247.027
247.088
247.159
247.245
247.352
247.49
247.668
247.897
248.189
248.558
249.018
249.582
250.265
251.078
252.028
253.12
254.349
255.705
257.165
258.696
260.248
261.759
263.15
264.327
265.188
265.631
265.577
265.01
264.037
262.932
262.061
261.482
261.131
260.934
260.831
260.784
260.768
260.769
260.777
260.787
260.797
260.804
260.808
260.81
260.812
260.817
260.828
260.855
260.908
261.007
261.179
261.468
261.942
262.698
263.87
265.589
267.853
270.285
272.539
274.42
275.843
276.782
226.953
227.237
227.501
227.743
227.964
228.166
228.347
228.51
228.655
228.783
228.896
228.995
229.082
229.16
229.229
229.293
229.354
229.417
229.486
229.566
229.663
229.787
229.944
230.148
230.41
230.745
231.167
231.692
232.337
233.117
234.045
235.129
236.375
237.778
239.325
240.991
242.738
244.508
246.226
247.795
249.095
249.983
250.305
249.907
248.703
246.789
244.658
243.27
242.486
242.062
241.84
241.727
241.674
241.653
241.648
241.652
241.658
241.664
241.669
241.672
241.674
241.676
241.68
241.691
241.714
241.761
241.846
241.997
242.259
242.709
243.482
244.812
247.058
250.5
254.131
257.327
259.861
261.696
262.857
210.558
210.863
211.145
211.403
211.638
211.851
212.042
212.214
212.366
212.501
212.62
212.724
212.816
212.897
212.971
213.039
213.105
213.174
213.25
213.338
213.447
213.585
213.763
213.992
214.287
214.663
215.137
215.727
216.452
217.327
218.368
219.585
220.983
222.558
224.298
226.173
228.141
230.139
232.08
233.851
235.303
236.252
236.466
235.673
233.594
230.117
225.903
224.082
223.3
222.942
222.771
222.687
222.648
222.632
222.627
222.627
222.63
222.633
222.636
222.637
222.639
222.64
222.643
222.65
222.665
222.695
222.749
222.846
223.019
223.332
223.918
225.093
227.655
233.381
238.934
243.391
246.683
248.95
250.328
195.608
195.927
196.22
196.488
196.732
196.952
197.15
197.327
197.484
197.623
197.745
197.853
197.947
198.032
198.108
198.18
198.25
198.323
198.405
198.502
198.622
198.774
198.971
199.225
199.551
199.968
200.494
201.147
201.949
202.918
204.07
205.417
206.966
208.713
210.644
212.732
214.93
217.17
219.36
221.372
223.04
224.14
224.367
223.29
220.277
214.414
204.865
203.938
203.761
203.698
203.668
203.654
203.648
203.645
203.644
203.644
203.645
203.645
203.646
203.646
203.646
203.646
203.647
203.648
203.65
203.655
203.664
203.68
203.709
203.761
203.863
204.113
205.277
216.756
225.291
231.185
235.181
237.795
239.331
182.1
182.426
182.725
182.997
183.245
183.468
183.669
183.848
184.007
184.147
184.271
184.38
184.476
184.562
184.64
184.714
184.787
184.864
184.952
185.056
185.186
185.353
185.567
185.845
186.203
186.659
187.234
187.949
188.826
189.885
191.145
192.619
194.316
196.233
198.356
200.66
203.096
205.596
208.066
210.374
212.347
213.75
214.25
213.335
210.09
202.454
203.284
214.673
221.393
225.668
228.385
229.956
170.007
170.333
170.631
170.903
171.15
171.372
171.572
171.75
171.908
172.047
172.171
172.279
172.375
172.461
172.54
172.616
172.691
172.772
172.864
172.976
173.115
173.295
173.527
173.827
174.214
174.708
175.33
176.104
177.053
178.199
179.564
181.161
183.002
185.085
187.4
189.921
192.603
195.379
198.159
200.818
203.194
205.072
206.174
206.13
204.472
200.802
201.532
209.055
214.514
218.276
220.749
222.199
159.277
159.597
159.889
160.156
160.398
160.616
160.811
160.986
161.141
161.277
161.398
161.505
161.6
161.685
161.764
161.84
161.917
162
162.097
162.214
162.363
162.554
162.803
163.125
163.539
164.069
164.736
165.565
166.582
167.812
169.275
170.991
172.971
175.216
177.719
180.457
183.388
186.452
189.565
192.617
195.465
197.937
199.828
200.916
201.022
200.182
200.936
205.795
209.754
212.697
214.721
215.941
149.841
150.15
150.432
150.69
150.923
151.134
151.322
151.491
151.641
151.773
151.89
151.994
152.086
152.17
152.248
152.323
152.401
152.487
152.587
152.71
152.866
153.069
153.332
153.674
154.114
154.677
155.385
156.267
157.348
158.656
160.213
162.041
164.153
166.555
169.24
172.19
175.369
178.724
182.181
185.645
188.999
192.108
194.83
197.035
198.66
199.791
200.589
203.701
206.401
208.522
210.044
210.991
141.617
141.91
142.179
142.424
142.647
142.847
143.027
143.188
143.331
143.458
143.57
143.67
143.759
143.84
143.916
143.991
144.069
144.156
144.259
144.387
144.55
144.762
145.039
145.399
145.863
146.456
147.203
148.132
149.273
150.653
152.298
154.23
156.467
159.016
161.875
165.029
168.449
172.089
175.887
179.761
183.617
187.351
190.859
194.061
196.925
199.509
200.355
202.263
203.985
205.397
206.449
207.129
134.513
134.788
135.04
135.271
135.48
135.669
135.839
135.991
136.126
136.246
136.353
136.448
136.534
136.612
136.686
136.759
136.837
136.925
137.03
137.161
137.33
137.551
137.839
138.215
138.7
139.32
140.102
141.075
142.269
143.715
145.44
147.469
149.821
152.507
155.528
158.875
162.523
166.435
170.557
174.823
179.153
183.464
187.677
191.73
195.595
199.293
200.189
201.234
202.215
203.051
203.701
204.144
128.432
128.687
128.921
129.135
129.33
129.506
129.665
129.808
129.935
130.049
130.15
130.24
130.322
130.397
130.468
130.54
130.617
130.704
130.811
130.945
131.118
131.346
131.644
132.033
132.537
133.18
133.992
135.003
136.246
137.75
139.547
141.663
144.119
146.93
150.101
153.625
157.485
161.649
166.071
170.696
175.457
180.283
185.108
189.875
194.55
199.124
200.067
200.482
200.9
201.283
201.604
201.848
123.277
123.511
123.726
123.923
124.103
124.266
124.414
124.548
124.667
124.774
124.87
124.956
125.033
125.105
125.174
125.244
125.319
125.406
125.512
125.648
125.824
126.057
126.363
126.762
127.28
127.943
128.781
129.825
131.108
132.664
134.524
136.717
139.266
142.188
145.493
149.177
153.228
157.619
162.312
167.259
172.401
177.675
183.021
188.382
193.714
198.988
199.977
199.921
199.913
199.943
200.003
200.086
118.952
119.164
119.359
119.54
119.706
119.858
119.996
120.12
120.233
120.334
120.425
120.507
120.581
120.65
120.717
120.784
120.858
120.943
121.049
121.184
121.361
121.596
121.906
122.314
122.842
123.52
124.378
125.448
126.765
128.364
130.277
132.535
135.165
138.185
141.606
145.432
149.651
154.243
159.175
164.403
169.875
175.534
181.318
187.171
193.039
198.879
199.909
199.498
199.164
198.92
198.774
198.727
115.366
115.557
115.735
115.9
116.053
116.194
116.324
116.442
116.549
116.646
116.734
116.813
116.885
116.952
117.016
117.081
117.152
117.235
117.337
117.47
117.646
117.881
118.192
118.602
119.137
119.824
120.696
121.785
123.128
124.76
126.716
129.028
131.724
134.826
138.348
142.294
146.658
151.424
156.562
162.032
167.787
173.77
179.922
186.182
192.49
198.791
199.857
199.172
198.585
198.127
197.818
197.668
112.437
112.608
112.77
112.922
113.065
113.198
113.322
113.436
113.541
113.637
113.723
113.801
113.872
113.937
113.999
114.062
114.129
114.208
114.306
114.434
114.605
114.835
115.143
115.552
116.086
116.776
117.655
118.755
120.115
121.771
123.758
126.111
128.86
132.027
135.631
139.677
144.163
149.075
154.387
160.063
166.056
172.312
178.771
185.368
192.038
198.718
199.816
198.915
198.128
197.498
197.058
196.825
110.093
110.247
110.396
110.539
110.674
110.804
110.925
111.039
111.145
111.242
111.33
111.409
111.481
111.546
111.606
111.666
111.729
111.801
111.892
112.012
112.174
112.395
112.694
113.093
113.621
114.307
115.183
116.285
117.651
119.319
121.325
123.706
126.492
129.709
133.375
137.501
142.085
147.117
152.574
158.421
164.614
171.098
177.813
184.691
191.663
198.657
199.782
198.703
197.751
196.979
196.43
196.128
108.274
108.415
108.554
108.691
108.825
108.955
109.08
109.199
109.31
109.413
109.507
109.591
109.666
109.732
109.791
109.847
109.903
109.967
110.047
110.154
110.301
110.505
110.788
111.171
111.683
112.354
113.218
114.311
115.671
117.338
119.35
121.743
124.55
127.799
131.509
135.693
140.353
145.48
151.053
157.041
163.399
170.074
177.004
184.12
191.346
198.606
199.752
198.519
197.422
196.527
195.882
195.519
106.934
107.067
107.202
107.339
107.477
107.614
107.749
107.879
108.003
108.117
108.222
108.315
108.395
108.464
108.522
108.573
108.621
108.672
108.735
108.823
108.947
109.127
109.383
109.74
110.225
110.869
111.708
112.779
114.12
115.772
117.773
120.162
122.973
126.234
129.968
134.19
138.902
144.1
149.764
155.864
162.358
169.194
176.307
183.625
191.071
198.561
199.724
198.345
197.114
196.103
195.369
194.949
106.045
106.173
106.31
106.455
106.605
106.758
106.912
107.062
107.205
107.339
107.46
107.567
107.657
107.73
107.787
107.831
107.867
107.9
107.94
107.999
108.092
108.236
108.453
108.77
109.213
109.817
110.616
111.648
112.953
114.572
116.545
118.912
121.707
124.96
128.698
132.934
137.676
142.92
148.65
154.838
161.444
168.414
175.686
183.183
190.825
198.521
199.696
198.169
196.801
195.672
194.849
194.373
105.592
105.723
105.87
106.031
106.204
106.383
106.566
106.747
106.92
107.082
107.228
107.354
107.458
107.537
107.594
107.629
107.647
107.655
107.662
107.681
107.728
107.822
107.985
108.245
108.629
109.174
109.913
110.887
112.137
113.703
115.628
117.95
120.707
123.932
127.649
131.876
136.624
141.891
147.663
153.915
160.61
167.695
175.107
182.769
190.593
198.484
199.665
197.976
196.458
195.203
194.283
193.746
105.582
105.723
105.889
106.078
106.285
106.504
106.73
106.954
107.171
107.372
107.552
107.705
107.827
107.916
107.97
107.992
107.986
107.959
107.921
107.886
107.87
107.895
107.984
108.164
108.468
108.93
109.587
110.479
111.649
113.139
114.991
117.245
119.94
123.11
126.781
130.975
135.703
140.966
146.756
153.05
159.813
166.997
174.538
182.356
190.36
198.446
199.628
197.752
196.061
194.66
193.63
193.025
106.039
106.199
106.396
106.626
106.883
107.158
107.443
107.728
108.003
108.258
108.483
108.672
108.818
108.917
108.967
108.971
108.931
108.856
108.757
108.649
108.549
108.481
108.469
108.544
108.739
109.09
109.636
110.419
111.481
112.865
114.616
116.774
119.379
122.465
126.063
130.194
134.873
140.106
145.886
152.198
159.011
166.279
173.941
181.918
190.111
198.406
199.584
197.479
195.58
194.005
192.846
192.162
107.007
107.196
107.438
107.726
108.051
108.402
108.768
109.133
109.485
109.809
110.094
110.329
110.505
110.617
110.661
110.638
110.553
110.414
110.233
110.027
109.815
109.624
109.48
109.416
109.468
109.674
110.074
110.712
111.632
112.878
114.494
116.523
119.005
121.976
125.468
129.504
134.102
139.273
145.015
151.317
158.157
165.495
173.276
181.42
189.825
198.359
199.529
197.136
194.98
193.194
191.881
191.104
108.549
108.78
109.083
109.449
109.865
110.317
110.787
111.257
111.708
112.123
112.484
112.777
112.991
113.116
113.15
113.091
112.945
112.72
112.431
112.096
111.739
111.387
111.072
110.828
110.695
110.713
110.925
111.377
112.114
113.182
114.626
116.488
118.81
121.629
124.978
128.882
133.363
138.435
144.102
150.363
157.202
164.592
172.488
180.817
189.471
198.302
199.457
196.697
194.217
192.173
190.676
189.791
110.747
111.035
111.419
111.886
112.421
113.002
113.607
114.211
114.789
115.318
115.774
116.14
116.399
116.539
116.556
116.449
116.221
115.885
115.455
114.955
114.409
113.851
113.315
112.842
112.472
112.252
112.227
112.443
112.95
113.794
115.02
116.672
118.792
121.418
124.581
128.312
132.633
137.563
143.114
149.29
156.092
163.507
171.509
180.043
189.007
198.226
199.363
196.12
193.23
190.873
189.162
188.155
113.703
114.064
114.552
115.149
115.834
116.579
117.355
118.128
118.866
119.536
120.111
120.565
120.878
121.035
121.027
120.855
120.522
120.041
119.431
118.718
117.933
117.113
116.299
115.535
114.868
114.349
114.026
113.95
114.171
114.737
115.694
117.087
118.957
121.342
124.274
127.784
131.898
136.636
142.016
148.055
154.766
162.161
170.243
178.997
188.352
198.118
199.235
195.339
191.928
189.203
187.255
186.12
117.53
117.984
118.602
119.364
120.238
121.189
122.177
123.161
124.096
124.942
125.662
126.223
126.599
126.772
126.731
126.473
126.004
125.339
124.501
123.52
122.434
121.285
120.122
118.996
117.96
117.07
116.38
115.944
115.815
116.042
116.672
117.751
119.318
121.409
124.06
127.297
131.148
135.636
140.785
146.617
153.163
160.46
168.559
177.515
187.357
197.95
199.049
194.228
190.172
187.044
184.863
183.609
122.357
122.925
123.706
124.671
125.779
126.986
128.237